!One-port fractal antenna S-param data from ADS Momentum example
# ghz S ri R 50             
           3               -0.083315          -0.11346
          3.015625         -0.093511           -0.10035
           3.03125          -0.10295          -0.086445
          3.046875          -0.11158          -0.071773
            3.0625          -0.11935          -0.056361
          3.078125          -0.12621          -0.040239
           3.09375          -0.13211          -0.023437
          3.109375          -0.13699         -0.0059888
             3.125           -0.1408           0.012068
          3.140625          -0.14348           0.030696
           3.15625          -0.14497            0.04985
          3.171875          -0.14521           0.069484
            3.1875          -0.14415           0.089547
          3.203125          -0.14171            0.10998
           3.21875          -0.13784            0.13072
          3.234375          -0.13246            0.15171
              3.25          -0.12552            0.17286
          3.265625          -0.11693             0.1941
           3.28125          -0.10663            0.21533
          3.296875         -0.094551            0.23645
            3.3125         -0.080614            0.25734
          3.328125         -0.064751            0.27788
           3.34375         -0.046892            0.29793
          3.359375         -0.026971            0.31732
             3.375        -0.0049243            0.33587
          3.390625          0.019303             0.3534
           3.40625          0.045756            0.36968
          3.421875          0.074468            0.38446
            3.4375           0.10545            0.39747
          3.453125            0.1387            0.40841
           3.46875           0.17418            0.41695
          3.484375            0.2118            0.42273
               3.5           0.25146            0.42535
           3.50625           0.26785            0.42542
            3.5125           0.28452             0.4249
           3.51875           0.30145            0.42374
             3.525           0.31863            0.42193
           3.53125           0.33603            0.41944
            3.5375           0.35364            0.41623
           3.54375           0.37142            0.41228
              3.55           0.38934            0.40755
           3.55625           0.40738            0.40202
            3.5625           0.42551            0.39567
           3.56875           0.44367            0.38846
             3.575           0.46184            0.38036
           3.58125           0.47997            0.37136
            3.5875           0.49801            0.36142
           3.59375           0.51591            0.35054
               3.6           0.53363            0.33868
          3.609375           0.55971            0.31903
           3.61875           0.58503            0.29712
          3.628125           0.60936            0.27291
            3.6375           0.63246            0.24642
          3.646875            0.6541            0.21766
           3.65625             0.674            0.18669
          3.665625           0.69191            0.15359
             3.675           0.70755            0.11847
          3.684375           0.72067           0.081508
           3.69375           0.73102           0.042867
          3.703125           0.73834          0.0027803
            3.7125           0.74242          -0.038492
          3.721875           0.74305           -0.08066
           3.73125           0.74007            -0.1234
          3.740625           0.73334           -0.16638
              3.75           0.72275           -0.20923
          3.759375           0.70822           -0.25157
           3.76875           0.68972           -0.29303
          3.778125           0.66721            -0.3332
            3.7875            0.6407           -0.37169
          3.796875           0.61019           -0.40806
           3.80625           0.57569           -0.44187
          3.815625           0.53722           -0.47261
             3.825            0.4948           -0.49966
          3.834375           0.44847           -0.52228
           3.84375           0.39842            -0.5395
          3.853125           0.34506            -0.5501
            3.8625           0.28927            -0.5526
          3.871875            0.2327           -0.54546
           3.88125           0.17802            -0.5275
          3.890625           0.12894           -0.49863
               3.9           0.08949           -0.46073
          3.903125          0.079057           -0.44675
           3.90625          0.070106            -0.4324
          3.909375          0.062659           -0.41788
            3.9125          0.056698           -0.40342
          3.915625          0.052168           -0.38919
           3.91875          0.048979           -0.37539
          3.921875          0.047014           -0.36218
             3.925          0.046132           -0.34968
          3.928125          0.046177           -0.33798
           3.93125          0.046988           -0.32716
          3.934375          0.048406           -0.31724
            3.9375          0.050276           -0.30824
          3.940625          0.052457           -0.30012
           3.94375          0.054822           -0.29286
          3.946875          0.057264           -0.28639
              3.95          0.059689           -0.28066
          3.965625          0.069512           -0.26053
           3.98125          0.073459           -0.24869
          3.996875          0.072132           -0.23945
            4.0125          0.067528              -0.23
          4.028125            0.0615            -0.2193
           4.04375          0.055386           -0.20722
          4.059375          0.050039           -0.19398
             4.075          0.045959           -0.17996
          4.090625          0.043397           -0.16556
           4.10625          0.042441            -0.1511
          4.121875          0.043079            -0.1369
            4.1375          0.045229            -0.1232
          4.153125          0.048775           -0.11019
           4.16875          0.053578          -0.098014
          4.184375          0.059489          -0.086784
               4.2          0.066359          -0.076579
             4.225          0.078979          -0.062504
              4.25          0.093108          -0.051277
             4.275           0.10823           -0.04289
               4.3           0.12389          -0.037262
             4.325            0.1397          -0.034256
              4.35           0.15533            -0.0337
             4.375           0.17049          -0.035401
               4.4           0.18496          -0.039149
             4.425           0.19854          -0.044731
              4.45            0.2111          -0.051929
             4.475           0.22251          -0.060531
               4.5           0.23272          -0.070333
             4.525           0.24165          -0.081135
              4.55           0.24929          -0.092752
             4.575           0.25562             -0.105
               4.6           0.26066           -0.11774
        4.62083333           0.26389            -0.1286
        4.64166667           0.26627           -0.13962
            4.6625           0.26781           -0.15071
        4.68333333           0.26855           -0.16181
        4.70416667           0.26854           -0.17286
             4.725           0.26779           -0.18381
        4.74583333           0.26637           -0.19461
        4.76666667            0.2643           -0.20523
            4.7875           0.26163           -0.21562
        4.80833333            0.2584           -0.22576
        4.82916667           0.25467           -0.23564
              4.85           0.25046           -0.24522
        4.87083333           0.24583           -0.25452
        4.89166667            0.2408           -0.26351
            4.9125           0.23543           -0.27219
        4.93333333           0.22974           -0.28059
        4.95416667           0.22376           -0.28869
             4.975           0.21753           -0.29652
        4.99583333           0.21106           -0.30408
        5.01666667           0.20437           -0.31141
            5.0375           0.19749           -0.31851
        5.05833333            0.1904           -0.32541
        5.07916667           0.18312           -0.33214
               5.1           0.17565           -0.33871
        5.12083333           0.16797           -0.34515
        5.14166667           0.16006           -0.35148
            5.1625           0.15191            -0.3577
        5.18333333           0.14349           -0.36384
        5.20416667           0.13476           -0.36991
             5.225           0.12569           -0.37589
        5.24583333           0.11623           -0.38179
        5.26666667           0.10635           -0.38759
        5.28333333          0.098111           -0.39214
               5.3          0.089542            -0.3966
        5.31666667          0.080624           -0.40094
        5.33333333          0.071337           -0.40515
              5.35          0.061658           -0.40919
        5.36666667           0.05157           -0.41304
        5.38333333          0.041055           -0.41665
               5.4            0.0301           -0.41998
             5.425          0.012823           -0.42438
              5.45        -0.0054824           -0.42792
             5.475         -0.024811           -0.43041
               5.5         -0.045132           -0.43169
             5.525         -0.066387           -0.43156
              5.55         -0.088488           -0.42985
             5.575          -0.11131           -0.42635
               5.6          -0.13471           -0.42089
             5.625          -0.15851           -0.41331
              5.65          -0.18249           -0.40345
             5.675          -0.20641           -0.39118
               5.7          -0.22999           -0.37638
             5.725          -0.25293           -0.35898
              5.75          -0.27491           -0.33894
             5.775          -0.29557           -0.31624
               5.8          -0.31453           -0.29095
            5.8125          -0.32326           -0.27735
             5.825          -0.33142           -0.26315
            5.8375          -0.33897           -0.24835
              5.85          -0.34584             -0.233
            5.8625            -0.352           -0.21711
             5.875          -0.35739           -0.20073
            5.8875          -0.36197           -0.18389
               5.9          -0.36569           -0.16663
            5.9125          -0.36851           -0.14902
             5.925          -0.37038           -0.13109
            5.9375          -0.37127           -0.11291
              5.95          -0.37114          -0.094556
            5.9625          -0.36997          -0.076076
             5.975          -0.36773          -0.057552
            5.9875           -0.3644          -0.039062
                 6          -0.35996          -0.020685
            6.0125          -0.35441         -0.0025069
             6.025          -0.34776           0.015387
            6.0375          -0.34001           0.032907
              6.05          -0.33118           0.049966
            6.0625           -0.3213           0.066474
             6.075          -0.31041           0.082342
            6.0875          -0.29855           0.097487
               6.1          -0.28577            0.11182
            6.1125          -0.27215            0.12528
             6.125          -0.25775            0.13778
            6.1375          -0.24266            0.14926
              6.15          -0.22696            0.15967
            6.1625          -0.21076            0.16895
             6.175          -0.19413            0.17708
            6.1875           -0.1772            0.18403
               6.2          -0.16006            0.18977
        6.21666667          -0.13708            0.19557
        6.23333333          -0.11417            0.19925
              6.25         -0.091579            0.20088
        6.26666667         -0.069524            0.20055
        6.28333333         -0.048215            0.19838
               6.3         -0.027836            0.19452
        6.31666667        -0.0085429            0.18914
        6.33333333         0.0095396            0.18242
              6.35          0.026316            0.17456
        6.36666667          0.041722            0.16574
        6.38333333          0.055722            0.15616
               6.4          0.068309            0.14602
        6.41666667            0.0795            0.13548
        6.43333333          0.089333            0.12472
              6.45          0.097867            0.11389
        6.46666667           0.10517            0.10312
        6.48055556           0.11037            0.09426
        6.49444445           0.11481           0.085567
        6.50833333           0.11855           0.077104
        6.52222222           0.12164           0.068916
        6.53611111           0.12414           0.061042
              6.55           0.12611            0.05351
        6.56388889            0.1276           0.046345
        6.57777778           0.12867           0.039563
        6.59166667           0.12938           0.033176
        6.60555556           0.12978           0.027188
        6.61944445           0.12991           0.021602
        6.63333333           0.12982           0.016413
        6.64722222           0.12956           0.011615
        6.66111111           0.12917          0.0071994
             6.675           0.12868          0.0031528
        6.68888889           0.12813        -0.00053912
        6.73518518           0.12624          -0.010502
        6.78148148           0.12493          -0.017409
        6.82777778           0.12482          -0.022022
        6.87407407           0.12627          -0.025099
        6.92037037           0.12944          -0.027352
        6.96666667           0.13431          -0.029416
        7.01296296           0.14075           -0.03184
        7.05925926           0.14852          -0.035079
        7.10555556           0.15734          -0.039496
        7.15185185           0.16686          -0.045361
        7.19814815           0.17672          -0.052858
        7.24444445           0.18657          -0.062091
        7.29074074           0.19602          -0.073086
        7.33703704           0.20473          -0.085802
        7.38333333           0.21236           -0.10013
        7.42962963           0.21862           -0.11593
        7.45277778           0.22115           -0.12432
        7.47592593           0.22323           -0.13299
        7.49907407           0.22485           -0.14192
        7.52222222           0.22598           -0.15107
        7.54537037            0.2266           -0.16041
        7.56851852           0.22669           -0.16991
        7.59166667           0.22623           -0.17951
        7.61481481           0.22521            -0.1892
        7.63796296           0.22362           -0.19892
        7.66111111           0.22145           -0.20864
        7.68425926           0.21871           -0.21832
        7.70740741           0.21538           -0.22791
        7.73055556           0.21148           -0.23739
         7.7537037             0.207            -0.2467
        7.77685185           0.20195           -0.25581
               7.8           0.19635           -0.26468
             7.825           0.18969           -0.27394
              7.85           0.18241           -0.28283
             7.875           0.17454           -0.29131
               7.9           0.16611           -0.29932
             7.925           0.15713           -0.30683
              7.95           0.14766            -0.3138
             7.975           0.13771           -0.32019
                 8           0.12733           -0.32596
             8.025           0.11656           -0.33108
              8.05           0.10544           -0.33552
             8.075          0.094027           -0.33925
               8.1          0.082349           -0.34225
             8.125          0.070465            -0.3445
              8.15          0.058425           -0.34597
             8.175          0.046281           -0.34666
               8.2          0.034088           -0.34656
        8.24166667          0.013806           -0.34459
        8.28333333        -0.0062012           -0.34038
             8.325          -0.02567           -0.33395
        8.36666667         -0.044338           -0.32536
        8.40833333         -0.061943           -0.31467
              8.45         -0.078234           -0.30202
        8.49166667         -0.092969           -0.28756
        8.53333333          -0.10592           -0.27146
             8.575          -0.11689           -0.25394
        8.61666667           -0.1257           -0.23523
        8.65833333          -0.13221           -0.21562
               8.7           -0.1363           -0.19538
        8.74166667          -0.13789           -0.17483
        8.78333333          -0.13696           -0.15427
             8.825          -0.13352           -0.13402
        8.86666667          -0.12762           -0.11441
        8.90833333          -0.11937          -0.095754
              8.95           -0.1089          -0.078325
        8.99166667         -0.096418            -0.0624
        9.03333333         -0.082123           -0.04822
             9.075         -0.066274          -0.035988
        9.11666667         -0.049146           -0.02587
        9.15833333         -0.031032          -0.017987
               9.2         -0.012235          -0.012418
        9.24166667         0.0069393         -0.0091978
        9.28333333          0.026189         -0.0083156
             9.325          0.045223         -0.0097213
        9.36666667          0.063768          -0.013327
        9.40833333          0.081572          -0.019011
              9.45          0.098407          -0.026623
        9.49166667           0.11407          -0.035991
        9.53333333            0.1284          -0.046922
             9.575           0.14126          -0.059212
        9.61666667           0.15255          -0.072649
        9.65833333           0.16217          -0.087017
               9.7            0.1701            -0.1021
        9.74166667           0.17631           -0.11769
        9.78333333            0.1808           -0.13358
             9.825            0.1836           -0.14957
        9.86666667           0.18477           -0.16549
        9.90833333           0.18436           -0.18117
              9.95           0.18246           -0.19645
        9.99166667           0.17917           -0.21118
        10.0333333           0.17459           -0.22525
            10.075           0.16883           -0.23855
        10.1166667           0.16203           -0.25099
        10.1583333           0.15431            -0.2625
              10.2           0.14581           -0.27301
             10.25           0.13476           -0.28426
              10.3           0.12301             -0.294
             10.35           0.11079           -0.30223
              10.4          0.098334           -0.30899
             10.45          0.085828           -0.31437
              10.5          0.073463           -0.31846
             10.55          0.061393           -0.32144
              10.6          0.049736           -0.32345
              10.7          0.027899           -0.32546
              10.8         0.0078631           -0.32623
              10.9         -0.011527           -0.32745
                11         -0.032727           -0.33031
        11.0555556         -0.046713           -0.33266
        11.1111111         -0.063463           -0.33525
        11.1666667          -0.08423           -0.33737
        11.2222222          -0.11059           -0.33762
        11.2777778          -0.14439           -0.33326
        11.3333333           -0.1872           -0.31903
        11.3888889          -0.23791           -0.28519
        11.4444444          -0.28547           -0.21743
        11.4555556          -0.29215           -0.19878
        11.4666667          -0.29706           -0.17848
        11.4777778          -0.29978           -0.15671
        11.4888889          -0.29992           -0.13379
              11.5           -0.2971           -0.11014
        11.5111111          -0.29108           -0.08631
        11.5222222           -0.2817          -0.062931
        11.5333333          -0.26901          -0.040697
        11.5555555          -0.23475         -0.0023385
        11.5777778          -0.19209           0.024441
              11.6          -0.14634           0.037856
        11.6222222          -0.10257           0.038889
        11.6444444         -0.064249           0.030343
        11.6666667         -0.032948           0.015541
        11.6888889        -0.0087914           -0.00258
        11.7111111         0.0089398          -0.021838
        11.7333333          0.021293          -0.040803
        11.7555556           0.02934          -0.058635
        11.7777778          0.034039          -0.074899
              11.8          0.036184           -0.08942
        11.8222222           0.03641           -0.10217
        11.8444444          0.035215           -0.11321
        11.8666667          0.032987           -0.12264
        11.8888889          0.030029           -0.13057
        11.9333333          0.022818           -0.14243
        11.9777778          0.014951           -0.14968
        12.0222222         0.0073307           -0.15311
        12.0666667        0.00059193           -0.15339
        12.1111111        -0.0047966           -0.15114
        12.1555556        -0.0084822           -0.14695
              12.2         -0.010212           -0.14138
        12.2444445        -0.0098352           -0.13504
        12.2888889         -0.007319           -0.12851
        12.3333333        -0.0027649           -0.12238
        12.3777778         0.0035765            -0.1172
        12.4222222          0.011303           -0.11343
        12.4666667          0.019877           -0.11139
        12.5111111          0.028674            -0.1112
        12.5555556           0.03705           -0.11277
              12.6          0.044436           -0.11574
            12.625          0.047996           -0.11783
             12.65          0.051076           -0.12007
            12.675          0.053667           -0.12234
              12.7           0.05579           -0.12451
            12.725          0.057499           -0.12646
             12.75          0.058873           -0.12809
            12.775          0.060014           -0.12932
              12.8          0.061043           -0.13009
            12.825          0.062093           -0.13038
             12.85          0.063298           -0.13019
            12.875           0.06479           -0.12956
              12.9          0.066686           -0.12856
            12.925          0.069089           -0.12727
             12.95          0.072077           -0.12582
            12.975          0.075702           -0.12433
                13          0.079986           -0.12293
        13.0462963          0.089627           -0.12104
        13.0925926           0.10122           -0.12073
        13.1388889           0.11427           -0.12261
        13.1851852           0.12808           -0.12709
        13.2314815           0.14193           -0.13433
        13.2777778           0.15512           -0.14426
        13.3240741           0.16702           -0.15662
        13.3703704           0.17714           -0.17102
        13.4166667           0.18515           -0.18701
         13.462963           0.19083           -0.20407
        13.5092593           0.19409           -0.22173
        13.5555556           0.19495           -0.23951
        13.6018518           0.19351           -0.25699
        13.6481482           0.18995            -0.2738
        13.6944444           0.18448           -0.28961
        13.7407407           0.17737           -0.30417
        13.7638889           0.17329           -0.31091
         13.787037           0.16891           -0.31725
        13.8101852           0.16427           -0.32319
        13.8333333           0.15942           -0.32871
        13.8564815            0.1544           -0.33379
        13.8796296           0.14925           -0.33843
        13.9027778           0.14402           -0.34263
        13.9259259           0.13875           -0.34638
        13.9490741           0.13349            -0.3497
        13.9722222            0.1283           -0.35258
        13.9953704            0.1232           -0.35505
        14.0185185           0.11826           -0.35712
        14.0416667           0.11352           -0.35883
        14.0648148           0.10902           -0.36019
         14.087963           0.10481           -0.36126
        14.1111111           0.10091           -0.36206
        14.1458333          0.095755            -0.3629
        14.1805556          0.091488           -0.36345
        14.2152778          0.088178           -0.36394
             14.25          0.085846            -0.3646
        14.2847222          0.084462           -0.36568
        14.3194445          0.083948           -0.36744
        14.3541667          0.084167           -0.37012
        14.3888889          0.084925           -0.37395
        14.4236111           0.08598           -0.37913
        14.4583333           0.08704           -0.38579
        14.4930556          0.087782           -0.39402
        14.5277778          0.087857           -0.40387
           14.5625          0.086904            -0.4153
        14.5972222          0.084565           -0.42821
        14.6319445          0.080494           -0.44243
        14.6666667          0.074361           -0.45777
        14.6944445          0.067766           -0.47066
        14.7222222          0.059516           -0.48392
             14.75          0.049482           -0.49739
        14.7777778          0.037545           -0.51087
        14.8055556          0.023602           -0.52413
        14.8333333         0.0075642           -0.53695
        14.8611111         -0.010645           -0.54907
        14.8888889          -0.03108           -0.56021
        14.9027778         -0.042145           -0.56532
        14.9166667         -0.053778           -0.57005
        14.9305556         -0.065977           -0.57439
        14.9444445         -0.078742           -0.57826
        14.9583333         -0.092067           -0.58164
        14.9722222          -0.10594           -0.58446
        14.9861111          -0.12036           -0.58667
                15           -0.1353           -0.58823
