!Sparam data from ADS\Study\Convolution\MTT2018\MACOM_FET_AMP_IDEAL_CLASSF
# ghz S ri R 50
0.0000000000000000e+000	1.8752970789528245e-001	0.0000000000000000e+000	9.8224936600922053e-001	0.0000000000000000e+000	9.8224936599692236e-001	0.0000000000000000e+000	-1.8750657894219769e-001	0.0000000000000000e+000
1.0000000000000000e-002	1.5750912516065441e-001	-1.6828074672394477e-001	9.5953078230584121e-001	-1.5863707978802341e-001	9.5953078230584343e-001	-1.5863707978800515e-001	-2.0400538034714499e-001	-1.0854670251802501e-001
2.0000000000000000e-002	7.5393227734153134e-002	-3.1224979550440218e-001	8.9737011091300445e-001	-2.9941026866487530e-001	8.9737011091300323e-001	-2.9941026866487791e-001	-2.4917721026744444e-001	-2.0407241264752005e-001
2.9999999999999999e-002	-4.2020366665205255e-002	-4.1668176037659205e-001	8.0801325286294579e-001	-4.1121491104168745e-001	8.0801325286294579e-001	-4.1121491104168789e-001	-3.1408519803286172e-001	-2.7846469527628176e-001
4.0000000000000001e-002	-1.7541770680386060e-001	-4.7698773446208143e-001	7.0554147699652714e-001	-4.9065505312469532e-001	7.0554147699652814e-001	-4.9065505312469226e-001	-3.8846181217240761e-001	-3.2924493409126582e-001
5.0000000000000003e-002	-3.0882575517931232e-001	-4.9701114490765286e-001	6.0160413286384939e-001	-5.4047536988012734e-001	6.0160413286385084e-001	-5.4047536988012501e-001	-4.6381589687409486e-001	-3.5840798437999644e-001
5.9999999999999998e-002	-4.3190833399552764e-001	-4.8477242692088129e-001	5.0374512213110823e-001	-5.6646223805452967e-001	5.0374512213110978e-001	-5.6646223805452911e-001	-5.3464903843017320e-001	-3.7016388468057848e-001
7.0000000000000007e-002	-5.3948249696493855e-001	-4.4901200100455130e-001	4.1575609642208944e-001	-5.7492565570193443e-001	4.1575609642208855e-001	-5.7492565570193510e-001	-5.9819709730675807e-001	-3.6910296590587222e-001
8.0000000000000002e-002	-6.2995432632234971e-001	-3.9735061986098363e-001	3.3881667268074450e-001	-5.7135968575123985e-001	3.3881667268074284e-001	-5.7135968575124041e-001	-6.5359874259244233e-001	-3.5921997597091077e-001
8.9999999999999997e-002	-7.0379878524098050e-001	-3.3570508624105333e-001	2.7260216427670025e-001	-5.6001750258821981e-001	2.7260216427670064e-001	-5.6001750258821992e-001	-7.0108800674409300e-001	-3.4360469521922499e-001
1.0000000000000001e-001	-7.6247705041903968e-001	-2.6836453399559279e-001	2.1607231160768792e-001	-5.4396757310954047e-001	2.1607231160768772e-001	-5.4396757310954125e-001	-7.4141947584041512e-001	-3.2448306159161194e-001
1.1000000000000000e-001	-8.0778712843749134e-001	-1.9830578865345350e-001	1.6794419286001705e-001	-5.2532387502754863e-001	1.6794419286001536e-001	-5.2532387502754918e-001	-7.7552368168381924e-001	-3.0338501702277165e-001
1.2000000000000000e-001	-8.4152260579798310e-001	-1.2753449908895098e-001	1.2694057373343107e-001	-5.0549476722979492e-001	1.2694057373343159e-001	-5.0549476722979503e-001	-8.0432613752153403e-001	-2.8132587173922458e-001
1.3000000000000000e-001	-8.6531821099276018e-001	-5.7371686531432091e-002	9.1902126756126509e-002	-4.8539200126216531e-001	9.1902126756126426e-002	-4.8539200126216547e-001	-8.2866555460529379e-001	-2.5895857527640226e-001
1.4000000000000001e-001	-8.8059722792485273e-001	1.1330337483041214e-002	6.1825435905100472e-002	-4.6558820782452565e-001	6.1825435905100451e-002	-4.6558820782452576e-001	-8.4926611430340526e-001	-2.3668841067764648e-001
1.4999999999999999e-001	-8.8856934373661378e-001	7.8034245807917915e-002	3.5864251660623209e-002	-4.4642902398987344e-001	3.5864251660623646e-002	-4.4642902398987327e-001	-8.6673649360257432e-001	-2.1475461475445878e-001
1.6000000000000000e-001	-8.9025047004359070e-001	1.4241169771179041e-001	1.3314731661007622e-002	-4.2811041091952212e-001	1.3314731661007596e-002	-4.2811041091952212e-001	-8.8158053428665017e-001	-1.9328661662512958e-001
1.7000000000000001e-001	-8.8648986061147950e-001	2.0427160865753657e-001	-6.4046423084477347e-003	-4.1073097433384542e-001	-6.4046423084480409e-003	-4.1073097433384576e-001	-8.9421176489161336e-001	-1.7234204596680006e-001
1.7999999999999999e-001	-8.7799751822436689e-001	2.6351215617346957e-001	-2.3773368733460282e-002	-3.9432696380091981e-001	-2.3773368733459564e-002	-3.9432696380092008e-001	-9.0496805560263782e-001	-1.5193210369441687e-001
1.9000000000000000e-001	-8.6536892055424286e-001	3.2008889849465527e-001	-3.9187291451647219e-002	-3.7889550611757883e-001	-3.9187291451647961e-002	-3.7889550611757866e-001	-9.1412482823180297e-001	-1.3203834100371498e-001
2.0000000000000001e-001	-8.4910611013221626e-001	3.7399370624575878e-001	-5.2974333254140499e-002	-3.6440993395802496e-001	-5.2974333254140075e-002	-3.6440993395802512e-001	-9.2190631191118910e-001	-1.1262365720819470e-001
2.0999999999999999e-001	-8.2963513303967629e-001	4.2524090258111091e-001	-6.5407590950623387e-002	-3.5082983505586479e-001	-6.5407590950623803e-002	-3.5082983505586485e-001	-9.2849483246103193e-001	-9.3639425279804914e-002
2.2000000000000000e-001	-8.0732019993261761e-001	4.7385818850912409e-001	-7.6716069180054219e-002	-3.3810758572647315e-001	-7.6716069180053942e-002	-3.3810758572647320e-001	-9.3403832834201128e-001	-7.5030025300430236e-002
2.3000000000000001e-001	-7.8247506251547005e-001	5.1988073328997897e-001	-8.7093418654396876e-002	-3.2619254650703472e-001	-8.7093418654396779e-002	-3.2619254650703483e-001	-9.3865634774148055e-001	-5.6735637882773492e-002
2.3999999999999999e-001	-7.5537209450193810e-001	5.6334734856109914e-001	-9.6705043387378439e-002	-3.1503370406673248e-001	-9.6705043387378425e-002	-3.1503370406673237e-001	-9.4244477697231732e-001	-3.8693861440550648e-002
2.5000000000000000e-001	-7.2624951188279629e-001	6.0429802365113561e-001	-1.0569390440807384e-001	-3.0458128065287488e-001	-1.0569390440807394e-001	-3.0458128065287465e-001	-9.4547951874294700e-001	-2.0840523958144300e-002
2.6000000000000001e-001	-6.9531709842891365e-001	6.4277233752106067e-001	-1.1418530050214623e-001	-2.9478765692673869e-001	-1.1418530050214594e-001	-2.9478765692673897e-001	-9.4781929852008284e-001	-3.1099300116244344e-003
2.7000000000000002e-001	-6.6276073479921194e-001	6.7880842004798858e-001	-1.2229086157268849e-001	-2.8560783662028483e-001	-1.2229086157268858e-001	-2.8560783662028461e-001	-9.4950773623500295e-001	1.4565304365789830e-002
2.8000000000000003e-001	-6.2874596971484698e-001	7.1244223867516443e-001	-1.3011195222282174e-001	-2.7699960218432418e-001	-1.3011195222282143e-001	-2.7699960218432451e-001	-9.5057478174452792e-001	3.2254737371981160e-002
2.8999999999999998e-001	-5.9342082106512684e-001	7.4370705334608933e-001	-1.3774265384827336e-001	-2.6892345618322810e-001	-1.3774265384827331e-001	-2.6892345618322816e-001	-9.5103757577309744e-001	5.0030859744753360e-002
2.9999999999999999e-001	-5.5691795313101333e-001	7.7263292447493648e-001	-1.4527247331614515e-001	-2.6134240456597918e-001	-1.4527247331614507e-001	-2.6134240456597940e-001	-9.5090076204386131e-001	6.7970110848244322e-002
3.1000000000000000e-001	-5.1935634214700310e-001	7.9924618258263458e-001	-1.5278891534753966e-001	-2.5422160872643496e-001	-1.5278891534753977e-001	-2.5422160872643468e-001	-9.5015623839053354e-001	8.6154164980184383e-002
3.2000000000000001e-001	-4.8084251480168916e-001	8.2356877824777608e-001	-1.6038005450047482e-001	-2.4752790859647325e-001	-1.6038005450047485e-001	-2.4752790859647331e-001	-9.4878229114231327e-001	1.0467152539926404e-001
3.3000000000000002e-001	-4.4147142175467680e-001	8.4561742896718139e-001	-1.6813725240749838e-001	-2.4122919463386946e-001	-1.6813725240749830e-001	-2.4122919463386955e-001	-9.4674200271660036e-001	1.2361948930101749e-001
3.4000000000000002e-001	-4.0132698988208748e-001	8.6540246511105035e-001	-1.7615818912480324e-001	-2.3529357791568645e-001	-1.7615818912480335e-001	-2.3529357791568642e-001	-9.4398074932107123e-001	1.4310657594679879e-001
3.4999999999999998e-001	-3.6048238228855778e-001	8.8292624784151819e-001	-1.8455041838757802e-001	-2.2968826868162978e-001	-1.8455041838757796e-001	-2.2968826868162975e-001	-9.4042250189446996e-001	1.6325554478817267e-001
3.5999999999999999e-001	-3.1899998449489608e-001	8.9818098211562591e-001	-1.9343572232868755e-001	-2.2437801559283177e-001	-1.9343572232868739e-001	-2.2437801559283177e-001	-9.3596448963349377e-001	1.8420717286983210e-001
3.7000000000000000e-001	-2.7693113046396012e-001	9.1114566764207749e-001	-2.0295564319530923e-001	-2.1932286579076812e-001	-2.0295564319530918e-001	-2.1932286579076821e-001	-9.3046954994548936e-001	2.0612501223018609e-001
3.8000000000000000e-001	-2.3431558808872233e-001	9.2178180238905849e-001	-2.1327872593523406e-001	-2.1447485353537865e-001	-2.1327872593523392e-001	-2.1447485353537865e-001	-9.2375511784506481e-001	2.2920140667256395e-001
3.9000000000000001e-001	-1.9118085150852460e-001	9.3002724660506042e-001	-2.2461024494678777e-001	-2.0977296552895541e-001	-2.2461024494678772e-001	-2.0977296552895552e-001	-9.1557720884310911e-001	2.5366510317226915e-001
4.0000000000000002e-001	-1.4754136172842358e-001	9.3578731715336183e-001	-2.3720555586567493e-001	-2.0513527539131879e-001	-2.3720555586567477e-001	-2.0513527539131862e-001	-9.0560675742197871e-001	2.7979081501128111e-001
4.0999999999999998e-001	-1.0339795219022074e-001	9.3892161767786053e-001	-2.5138877806582310e-001	-2.0044631668638885e-001	-2.5138877806582316e-001	-2.0044631668638885e-001	-8.9339398822865856e-001	3.0791099607773548e-001
4.1999999999999998e-001	-5.8738215940539629e-002	9.3922414845129787e-001	-2.6757937509721236e-001	-1.9553623067817749e-001	-2.6757937509721230e-001	-1.9553623067817763e-001	-8.7831355955418644e-001	3.3842964606958165e-001
4.2999999999999999e-001	-1.3539403398438177e-002	9.3639256664909598e-001	-2.8633047843021320e-001	-1.9014527288203054e-001	-2.8633047843021309e-001	-1.9014527288203056e-001	-8.5947796054600434e-001	3.7183660956116948e-001
4.4000000000000000e-001	3.2222425091807949e-002	9.2997950596891421e-001	-3.0838454715541963e-001	-1.8386137347497633e-001	-3.0838454715541980e-001	-1.8386137347497633e-001	-8.3559698938515403e-001	4.0871705422653476e-001
4.5000000000000001e-001	7.8548227249485514e-002	9.1931357914079048e-001	-3.3475376439664656e-001	-1.7600625441763199e-001	-3.3475376439664684e-001	-1.7600625441763190e-001	-8.0474303089555521e-001	4.4974058119696381e-001
4.6000000000000002e-001	1.2535557809492559e-001	9.0336840717450118e-001	-3.6683202060831099e-001	-1.6541941545161643e-001	-3.6683202060831110e-001	-1.6541941545161651e-001	-7.6394755228661504e-001	4.9558653375792633e-001
4.6999999999999997e-001	1.7232884966096940e-001	8.8054309121563956e-001	-4.0653204691786959e-001	-1.5003124424251096e-001	-4.0653204691786965e-001	-1.5003124424251113e-001	-7.0849071688585386e-001	5.4668418732925950e-001
4.7999999999999998e-001	2.1854137144824737e-001	8.4830163852676743e-001	-4.5637387936748863e-001	-1.2598630690029683e-001	-4.5637387936748847e-001	-1.2598630690029680e-001	-6.3064253910627377e-001	6.0242180192520500e-001
4.8999999999999999e-001	2.6147826193361801e-001	8.0265093389260478e-001	-5.1916684299369431e-001	-8.5801320434142236e-002	-5.1916684299369442e-001	-8.5801320434142153e-002	-5.1754026656905694e-001	6.5881368964089149e-001
5.0000000000000000e-001	2.9448738408926434e-001	7.3781245016106456e-001	-5.9580380651003850e-001	-1.4631295720095866e-002	-5.9580380651003784e-001	-1.4631295720096228e-002	-3.4850429479158962e-001	7.0169262393194087e-001
5.1000000000000001e-001	3.0065959203721149e-001	6.4863087087039895e-001	-6.7570942997284322e-001	1.1538042228484667e-001	-6.7570942997284289e-001	1.1538042228484618e-001	-9.7419619252456791e-002	6.8813562346785373e-001
5.2000000000000002e-001	2.4446892940553466e-001	5.4685663518217187e-001	-7.0649495989916644e-001	3.3934942697830389e-001	-7.0649495989916622e-001	3.3934942697830406e-001	2.2814260924047081e-001	5.1202940936135299e-001
5.3000000000000003e-001	9.9012135986614513e-002	5.0455662384483679e-001	-5.6440686737726053e-001	6.1837544903527020e-001	-5.6440686737726065e-001	6.1837544903527075e-001	4.4808133204943701e-001	4.8996699811085564e-002
5.4000000000000004e-001	-3.9659791598519623e-002	6.0936619023424676e-001	-2.3244441839401223e-001	7.3372453384554581e-001	-2.3244441839401184e-001	7.3372453384554470e-001	2.5356513742039732e-001	-4.9675285674199010e-001
5.5000000000000004e-001	-4.6121880609907739e-002	7.7073220629324879e-001	3.8711591192961359e-002	6.1230969634547916e-001	3.8711591192961851e-002	6.1230969634547938e-001	-1.9278609225012533e-001	-7.1564071587613165e-001
5.6000000000000005e-001	3.0961339181251546e-002	8.7545967902700794e-001	1.4874177509284431e-001	4.3629337200447044e-001	1.4874177509284481e-001	4.3629337200447071e-001	-5.4442370793316142e-001	-6.6291419969322285e-001
5.6999999999999995e-001	1.2139876922544723e-001	9.2270459276707162e-001	1.6922678129284427e-001	3.0000936338482187e-001	1.6922678129284421e-001	3.0000936338482154e-001	-7.4995398078256614e-001	-5.3160530799889338e-001
5.7999999999999996e-001	2.0269876017552613e-001	9.3760709891410621e-001	1.5688806644177633e-001	2.0734762053733696e-001	1.5688806644177644e-001	2.0734762053733705e-001	-8.6298014989263083e-001	-4.0117794878019675e-001
5.8999999999999997e-001	2.7254026300032130e-001	9.3601728897261161e-001	1.3516894545248911e-001	1.4497791034420479e-001	1.3516894545248928e-001	1.4497791034420474e-001	-9.2551780986497201e-001	-2.8892490780879232e-001
5.9999999999999998e-001	3.3295775543209527e-001	9.2575041413395209e-001	1.1230349068585029e-001	1.0210354719715484e-001	1.1230349068585042e-001	1.0210354719715503e-001	-9.6042811250138638e-001	-1.9450256059037446e-001
6.0999999999999999e-001	3.8619318748734988e-001	9.1057035857993918e-001	9.0920979873671051e-002	7.1853669299904221e-002	9.0920979873671079e-002	7.1853669299904249e-002	-9.7951925042085475e-001	-1.1415819172133923e-001
6.2000000000000000e-001	4.3396717410101826e-001	8.9234747750092924e-001	7.1674731582570747e-002	5.0016264990233622e-002	7.1674731582570567e-002	5.0016264990233823e-002	-9.8899150721678519e-001	-4.4243836790965323e-002
6.3000000000000000e-001	4.7750088987757922e-001	8.7205275659778858e-001	5.4543500007638426e-002	3.3978352929194829e-002	5.4543500007639016e-002	3.3978352929194891e-002	-9.9219185106257490e-001	1.8154612433050155e-002
6.4000000000000001e-001	5.1764871333073947e-001	8.5021279142237460e-001	3.9300438009445354e-002	2.2077817697861480e-002	3.9300438009445347e-002	2.2077817697861459e-002	-9.9095527336240985e-001	7.5270888929616406e-002
6.5000000000000002e-001	5.5501214387332332e-001	8.2712479720861121e-001	2.5682322108781384e-002	1.3229055698408923e-002	2.5682322108781273e-002	1.3229055698408912e-002	-9.8626779608108484e-001	1.2882845139083329e-001
6.6000000000000003e-001	5.9002029875182727e-001	8.0296245998847438e-001	1.3448572544612828e-002	6.7063694866136992e-003	1.3448572544612566e-002	6.7063694866135908e-003	-9.7860081016432532e-001	1.8019558106576641e-001
6.7000000000000004e-001	6.2298401317706076e-001	7.7783017030292745e-001	2.3996148791348470e-003	2.0160951537836359e-003	2.3996148791349098e-003	2.0160951537837894e-003	-9.6807863896104862e-001	2.3050486383071675e-001
6.8000000000000005e-001	6.5413192912931151e-001	7.5179179559356035e-001	-7.6189464843651848e-003	-1.1808509636182705e-003	-7.6189464843650183e-003	-1.1808509636183533e-003	-9.5455451095046229e-001	2.8074195124964990e-001
6.8999999999999995e-001	6.8363481349352262e-001	7.2488635211639296e-001	-1.6715819531897654e-002	-3.1172211674076467e-003	-1.6715819531897647e-002	-3.1172211674075304e-003	-9.3762890140145316e-001	3.3181180630033263e-001
6.9999999999999996e-001	7.1162228941084016e-001	6.9713663087118438e-001	-2.4952599485557246e-002	-3.9505529941374707e-003	-2.4952599485557152e-002	-3.9505529941374238e-003	-9.1662264520690429e-001	3.8458842433664409e-001
7.0999999999999996e-001	7.3819473289726933e-001	6.6855380886225224e-001	-3.2338851148571122e-002	-3.7844817379266071e-003	-3.2338851148571095e-002	-3.7844817379266752e-003	-8.9050333312067487e-001	4.3995000593149214e-001
7.1999999999999997e-001	7.6343219155770137e-001	6.3913952332249069e-001	-3.8821363564250207e-002	-2.6854353740801916e-003	-3.8821363564250276e-002	-2.6854353740801769e-003	-8.5775089424391837e-001	4.9879518430477376e-001
7.2999999999999998e-001	7.8740166683639545e-001	6.0888596091202074e-001	-4.4264434911578145e-002	-6.9974642626910021e-004	-4.4264434911577999e-002	-6.9974642626891091e-004	-8.1613232263704727e-001	5.6202359836377802e-001
7.3999999999999999e-001	8.1016383689906135e-001	5.7777374307710960e-001	-4.8416360638641943e-002	2.1214887108084164e-003	-4.8416360638642290e-002	2.1214887108086436e-003	-7.6233166292412413e-001	6.3043679894389015e-001
7.5000000000000000e-001	8.3178013967008924e-001	5.4576635039775989e-001	-5.0854990704118426e-002	5.6756213341416176e-003	-5.0854990704118475e-002	5.6756213341416480e-003	-6.9134588581660905e-001	7.0445073748447018e-001
7.6000000000000001e-001	8.5232071848846025e-001	5.1279787493795004e-001	-5.0904243744743616e-002	9.7085645944946612e-003	-5.0904243744743713e-002	9.7085645944945623e-003	-5.9551721277953096e-001	7.8335254420335820e-001
7.7000000000000002e-001	8.7187171901223559e-001	4.7874680756755411e-001	-4.7523799211709641e-002	1.3590522931104148e-002	-4.7523799211709648e-002	1.3590522931104129e-002	-4.6309642229186831e-001	8.6344362540337449e-001
7.8000000000000003e-001	8.9053184567462118e-001	4.4338071128942347e-001	-3.9238610792653068e-002	1.5809150938823201e-002	-3.9238610792653117e-002	1.5809150938823173e-002	-2.7667231910215273e-001	9.3349424507646817e-001
7.9000000000000004e-001	9.0835624627663258e-001	4.0624858669091723e-001	-2.4453559018081862e-002	1.2892073290735894e-002	-2.4453559018081810e-002	1.2892073290735868e-002	-1.4143768829327774e-002	9.6424401279098682e-001
8.0000000000000004e-001	9.2511267376301620e-001	3.6653792096972576e-001	-3.4274236085010752e-003	-2.3225055002683145e-003	-3.4274236085010796e-003	-2.3225055002683288e-003	3.3615719868823124e-001	8.8895127374746363e-001
8.1000000000000005e-001	9.3962067677739003e-001	3.2323274305429928e-001	1.5388932002747848e-002	-4.0368798137315476e-002	1.5388932002747806e-002	-4.0368798137315531e-002	7.1648586242852952e-001	5.9510914578273200e-001
8.1999999999999995e-001	9.4927136626628150e-001	2.7660558407488123e-001	8.3450421980843219e-003	-1.0220898439311717e-001	8.3450421980841155e-003	-1.0220898439311718e-001	9.1227758774489431e-001	3.1436338301496156e-002
8.2999999999999996e-001	9.5259317022265200e-001	2.2995393923399188e-001	-4.2728869729963932e-002	-1.5865836899157462e-001	-4.2728869729964127e-002	-1.5865836899157448e-001	7.0668768549074934e-001	-5.6596443260606222e-001
8.3999999999999997e-001	9.5224234242497041e-001	1.8593684716144507e-001	-1.1637163055746269e-001	-1.7886554429122131e-001	-1.1637163055746259e-001	-1.7886554429122106e-001	2.4586892758340273e-001	-8.7621823136478416e-001
8.4999999999999998e-001	9.5093966806144814e-001	1.4323595948016052e-001	-1.8293023934856040e-001	-1.6823374875903288e-001	-1.8293023934856056e-001	-1.6823374875903349e-001	-1.8408816436815867e-001	-8.9906083514890878e-001
8.5999999999999999e-001	9.4871253808711975e-001	9.9709614237916827e-002	-2.3533797828495387e-001	-1.4415578441160748e-001	-2.3533797828495456e-001	-1.4415578441160756e-001	-4.8374526253635786e-001	-7.8553507993853811e-001
8.7000000000000000e-001	9.4443895899366814e-001	5.4275323788577828e-002	-2.7787170130781003e-001	-1.1591500371156085e-001	-2.7787170130781019e-001	-1.1591500371156070e-001	-6.7197306598224604e-001	-6.3315447151680737e-001
8.8000000000000000e-001	9.3689099986648561e-001	6.5712269488294997e-003	-3.1546667771710640e-001	-8.6008744038228419e-002	-3.1546667771710701e-001	-8.6008744038228405e-002	-7.8502189893847052e-001	-4.7982906598937136e-001
8.9000000000000001e-001	9.2482864986281554e-001	-4.3460393976675671e-002	-3.5144409564282708e-001	-5.3983292391508043e-002	-3.5144409564282719e-001	-5.3983292391507967e-002	-8.4886570432248176e-001	-3.3605776677561067e-001
9.0000000000000002e-001	9.0684696188210889e-001	-9.5688534650181858e-002	-3.8775019322382709e-001	-1.8175745223697849e-002	-3.8775019322382648e-001	-1.8175745223697529e-002	-8.7864572519701911e-001	-2.0263626064779822e-001
9.1000000000000003e-001	8.8120373785029105e-001	-1.4971513682622259e-001	-4.2532731378929822e-001	2.3791620670975275e-002	-4.2532731378929894e-001	2.3791620670975011e-002	-8.8206012302857340e-001	-7.7643012680258541e-002
9.2000000000000004e-001	8.4566427874430872e-001	-2.0463906111132796e-001	-4.6417463163418021e-001	7.5003346886374542e-002	-4.6417463163418110e-001	7.5003346886374056e-002	-8.6185549689514351e-001	4.0917927739382062e-002
9.3000000000000005e-001	7.9740448424000521e-001	-2.5861028315596613e-001	-5.0302104278750437e-001	1.3937872978422425e-001	-5.0302104278750437e-001	1.3937872978422391e-001	-8.1719721465742678e-001	1.5381044299722124e-001
9.3999999999999995e-001	7.3311459947670099e-001	-3.0806869068002668e-001	-5.3850755870974998e-001	2.2167324038184119e-001	-5.3850755870974998e-001	2.2167324038184108e-001	-7.4445675070093664e-001	2.5930376402703526e-001
9.4999999999999996e-001	6.4967322622231882e-001	-3.4659164396337472e-001	-5.6375824587588796e-001	3.2689003648618042e-001	-5.6375824587588830e-001	3.2689003648618015e-001	-6.3820106245184838e-001	3.5130903935973323e-001
9.5999999999999996e-001	5.4614008136223746e-001	-3.6360901104735538e-001	-5.6653267338507085e-001	4.5815466693747797e-001	-5.6653267338507074e-001	4.5815466693747808e-001	-4.9370641649826430e-001	4.1682048560376994e-001
9.6999999999999997e-001	4.2799711402824436e-001	-3.4437928648475169e-001	-5.2845715085048373e-001	6.1169662117502077e-001	-5.2845715085048373e-001	6.1169662117502088e-001	-3.1296878534169481e-001	4.3413802075320146e-001
9.7999999999999998e-001	3.1295315383496991e-001	-2.7467299753847108e-001	-4.2955088786827689e-001	7.6913116830380712e-001	-4.2955088786827650e-001	7.6913116830380690e-001	-1.1479074930184874e-001	3.7688717386118353e-001
9.8999999999999999e-001	2.3192571101519488e-001	-1.5317923610729867e-001	-2.6277224168524005e-001	8.9407535629472468e-001	-2.6277224168524005e-001	8.9407535629472590e-001	5.8520214855005692e-002	2.3069562970961219e-001
1.0000000000000000e+000	2.1477386672393783e-001	-3.8441857119546818e-003	-5.1215401447451007e-002	9.4686102342072631e-001	-5.1215401447450924e-002	9.4686102342072620e-001	1.5546930167514361e-001	1.6251942876939901e-002
1.0100000000000000e+000	2.6669985160961907e-001	1.3202434493722792e-001	1.5702020465552566e-001	9.1394185493804536e-001	1.5702020465552580e-001	9.1394185493804581e-001	1.5113947579401721e-001	-2.1148794380805785e-001
1.0200000000000000e+000	3.6397108285886404e-001	2.2313154259121562e-001	3.2052854353133309e-001	8.1787694584823489e-001	3.2052854353133325e-001	8.1787694584823456e-001	6.4693145520293927e-002	-3.9909175840016342e-001
1.0300000000000000e+000	4.7473310004804570e-001	2.6330543837763709e-001	4.2624791308618054e-001	6.9535598630067619e-001	4.2624791308618032e-001	6.9535598630067563e-001	-6.2824781462710089e-002	-5.2425776163819982e-001
1.0400000000000000e+000	5.7732302681501735e-001	2.6327485081156998e-001	4.8299139624658061e-001	5.7400565304457052e-001	4.8299139624658077e-001	5.7400565304457085e-001	-1.9716620050867695e-001	-5.9229044590350843e-001
1.0500000000000000e+000	6.6284710439119054e-001	2.3737035010324556e-001	5.0613492445190911e-001	4.6694912410675182e-001	5.0613492445190900e-001	4.6694912410675232e-001	-3.2008516900731676e-001	-6.1890796918241442e-001
1.0600000000000001e+000	7.3022898874628606e-001	1.9694336110092142e-001	5.0892374483088776e-001	3.7749985625330901e-001	5.0892374483088765e-001	3.7749985625330890e-001	-4.2533484942830191e-001	-6.1908402869536283e-001
1.0700000000000001e+000	7.8160634306523069e-001	1.4934461920735786e-001	5.0043512915737942e-001	3.0443878212351483e-001	5.0043512915737887e-001	3.0443878212351466e-001	-5.1277767577794453e-001	-6.0368095880830897e-001
1.0800000000000001e+000	8.1986811872450494e-001	9.8874045270547620e-002	4.8626315325287039e-001	2.4510585348671024e-001	4.8626315325287062e-001	2.4510585348671082e-001	-5.8459875171568298e-001	-5.7970409359845831e-001
1.0900000000000001e+000	8.4767697810870346e-001	4.7895239508934137e-002	4.6966503805708371e-001	1.9675954644614321e-001	4.6966503805708376e-001	1.9675954644614321e-001	-6.4349002707669078e-001	-5.5141478713566694e-001
1.1000000000000001e+000	8.6720059672462746e-001	-2.3600718349004730e-003	4.5246688727746009e-001	1.5703993602255381e-001	4.5246688727745998e-001	1.5703993602255381e-001	-6.9194026845228329e-001	-5.2131932463398778e-001
1.1100000000000001e+000	8.8011537250362371e-001	-5.1294099181336060e-002	4.3565475349686494e-001	1.2405366578023061e-001	4.3565475349686500e-001	1.2405366578023037e-001	-7.3202948526995271e-001	-4.9085283124606105e-001
1.1200000000000001e+000	8.8769055606823377e-001	-9.8654151120394648e-002	4.1973213701431838e-001	9.6325991033075875e-002	4.1973213701431877e-001	9.6325991033075917e-002	-7.6542257768263566e-001	-4.6081032496239488e-001
1.1299999999999999e+000	8.9088064211238338e-001	-1.4436999116192487e-001	4.0492930041795849e-001	7.2720350200273190e-002	4.0492930041795866e-001	7.2720350200273357e-002	-7.9342782609660056e-001	-4.3160810181415438e-001
1.1399999999999999e+000	8.9040378956961597e-001	-1.8846360565166026e-001	3.9132419711366673e-001	5.2361479365522698e-002	3.9132419711366695e-001	5.2361479365522788e-002	-8.1706683681578818e-001	-4.0343986525147069e-001
1.1499999999999999e+000	8.8680256589484663e-001	-2.3099965417980364e-001	3.7891197565016072e-001	3.4572154289373366e-002	3.7891197565016077e-001	3.4572154289373332e-002	-8.3713739273536747e-001	-3.7636958735217568e-001
1.1599999999999999e+000	8.8048919625753008e-001	-2.7205859151741019e-001	3.6764480726103926e-001	1.8824202641572859e-002	3.6764480726103937e-001	1.8824202641572821e-002	-8.5426457279494472e-001	-3.5038674630217337e-001
1.1699999999999999e+000	8.7177871953933295e-001	-3.1172238315588746e-001	3.5745459390310780e-001	4.7015571662504434e-003	3.5745459390310791e-001	4.7015571662504460e-003	-8.6894054964755751e-001	-3.2543920659865194e-001
1.1799999999999999e+000	8.6091315551713743e-001	-3.5006719329816005e-001	3.4826577433673794e-001	-8.1273271112822666e-003	3.4826577433673800e-001	-8.1273271112823602e-003	-8.8155495672528195e-001	-3.0145276098994317e-001
1.1899999999999999e+000	8.4807913096697596e-001	-3.8715990414329027e-001	3.4000238586794779e-001	-1.9930035785045923e-002	3.4000238586794795e-001	-1.9930035785046041e-002	-8.9241786452080518e-001	-2.7834266863467355e-001
1.2000000000000000e+000	8.3342078216143389e-001	-4.2305670483867064e-001	3.3259178897585245e-001	-3.0925583546827909e-002	3.3259178897585245e-001	-3.0925583546827850e-002	-9.0177712366716833e-001	-2.5602036200806128e-001
1.2100000000000000e+000	8.1704924699761894e-001	-4.5780275872818366e-001	3.2596645641012467e-001	-4.1296015406517186e-002	3.2596645641012495e-001	-4.1296015406517318e-002	-9.0983146486120159e-001	-2.3439722309703812e-001
1.2200000000000000e+000	7.9904968459904024e-001	-4.9143238961558811e-001	3.2006464630178061e-001	-5.1195241890081955e-002	3.2006464630178061e-001	-5.1195241890082170e-002	-9.1674041179929266e-001	-2.1338657603930519e-001
1.2300000000000000e+000	7.7948648977966650e-001	-5.2396947092453094e-001	3.1483043894586760e-001	-6.0755854368110339e-002	3.1483043894586771e-001	-6.0755854368110540e-002	-9.2263179350315039e-001	-1.9290459330082288e-001
1.2400000000000000e+000	7.5840717777985645e-001	-5.5542783829941278e-001	3.1021341646286360e-001	-7.0094465881318457e-002	3.1021341646286377e-001	-7.0094465881318443e-002	-9.2760743521998779e-001	-1.7287054115287656e-001
1.2500000000000000e+000	7.3584527915995968e-001	-5.8581162215188198e-001	3.0616814495302558e-001	-7.9315978510117333e-002	3.0616814495302547e-001	-7.9315978510117471e-002	-9.3174745153076588e-001	-1.5320662516922406e-001
1.2600000000000000e+000	7.1182248915948088e-001	-6.1511543752987774e-001	3.0265354628825220e-001	-8.8517075531917122e-002	3.0265354628825214e-001	-8.8517075531917122e-002	-9.3511344935560536e-001	-1.3383759530315920e-001
1.2700000000000000e+000	6.8635024835132885e-001	-6.4332438880467713e-001	2.9963220162991644e-001	-9.7789163917947841e-002	2.9963220162991666e-001	-9.7789163917947924e-002	-9.3775086177865286e-001	-1.1469020778559014e-001
1.2800000000000000e+000	6.5943088383483994e-001	-6.7041385403838583e-001	2.9706959939151623e-001	-1.0722094183416679e-001	2.9706959939151611e-001	-1.0722094183416656e-001	-9.3969056773559856e-001	-9.5692602728061335e-002
1.2900000000000000e+000	6.3105840690826143e-001	-6.9634901281547745e-001	2.9493331947056733e-001	-1.1690073082477059e-001	2.9493331947056739e-001	-1.1690073082477068e-001	-9.4094990121503685e-001	-7.6773633056755566e-002
1.3000000000000000e+000	6.0121904049028752e-001	-7.2108407392906793e-001	2.9319212847312570e-001	-1.2691868915177779e-001	2.9319212847312570e-001	-1.2691868915177770e-001	-9.4153311179288679e-001	-5.7862167036632654e-002
1.3100000000000001e+000	5.6989153530480130e-001	-7.4456114632594650e-001	2.9181494397391833e-001	-1.3736900847542582e-001	2.9181494397391827e-001	-1.3736900847542607e-001	-9.4143130211661097e-001	-3.8886380256039126e-002
1.3200000000000001e+000	5.3704732699861601e-001	-7.6670867786418950e-001	2.9076960675425262e-001	-1.4835218870310404e-001	2.9076960675425251e-001	-1.4835218870310418e-001	-9.4062183409892386e-001	-1.9773052196869291e-002
1.3300000000000001e+000	5.0265058707431343e-001	-7.8743936064838371e-001	2.9002137554792151e-001	-1.5997748396051983e-001	2.9002137554792190e-001	-1.5997748396051989e-001	-9.3906716107119259e-001	-4.4688731465913900e-004
1.3400000000000001e+000	4.6665823021289699e-001	-8.0664736708741336e-001	2.8953102562174043e-001	-1.7236561503551334e-001	2.8953102562174032e-001	-1.7236561503551334e-001	-9.3671300497514332e-001	1.9170107988855663e-002